Name,ID,smiles,MF_PC_0,MF_PC_1,MF_PC_2,MF_PC_3,MF_PC_4,MF_PC_5,MF_PC_6,MF_PC_7,MF_PC_8,MF_PC_9,MF_PC_10,MF_PC_11,MF_PC_12,MF_PC_13,Yield
Ra05_Rb027,CNP55,Cc1ccc(-c2nc(-c3ccc(C)cc3)c(C#N)c(-c3ccc(-c4ccc(F)cc4)cc3)c2C#N)cc1,1.65219017387678,-1.6549612873146091,-0.4609378805134343,-0.927998198589985,0.6469737598198492,2.3489576173631384,0.6524273615054526,0.0071195406634493,0.0828118203571912,-0.34708072051817,0.0776346245597099,-0.4803956294388209,-0.3788043124603047,-0.5756162765769356,0