Name,ID,smiles,MF_PC_0,MF_PC_1,MF_PC_2,MF_PC_3,MF_PC_4,MF_PC_5,MF_PC_6,MF_PC_7,MF_PC_8,MF_PC_9,MF_PC_10,MF_PC_11,MF_PC_12,MF_PC_13,MF_PC_14,MF_PC_15,MF_PC_16,MF_PC_17,MF_PC_18,MF_PC_19,Yield
Ra05_Rb016,CNP42,CCn1c2ccccc2c2cc(-c3c(C#N)c(-c4ccc(C)cc4)nc(-c4ccc(C)cc4)c3C#N)ccc21,2.5271363933457995,0.8865064480708852,-0.8627740085061419,1.5809697617005636,-0.3931973119140536,1.4591279234006016,-0.9517151043086252,-1.0449673835701818,-0.0845122862691057,0.003970427255751,-0.1370161917011522,-0.0399787014032155,0.2549819338267005,0.7573631604272995,-0.4239017354162645,0.5482265440665783,-0.1638090251861401,-0.1827823184372982,0.0645143593050537,0.1324596605904637,67
Ra12_Rb016,CNP43,CCn1c2ccccc2c2cc(-c3c(C#N)c(-c4cccc(C)c4)nc(-c4cccc(C)c4)c3C#N)ccc21,2.5481162419566767,1.1231232265241815,-0.3305309529362856,1.6172978975038084,-0.5408865754363285,0.7187619502322705,-1.24375654353046,-1.105887647638152,0.8102796832027431,0.9628044939878164,0.1776154647180481,0.3639603658575351,0.1535460141884558,-0.097708473752617,0.6017482519845406,0.5521125405508885,0.0410096206097377,-0.595986654521797,-0.1917080380469104,-0.1615568037759483,54
Ra09_Rb021,CNP44,COc1ccc(-c2nc(-c3ccc(OC)cc3)c(C#N)c(-c3ccc4ccc5cccc6ccc3c4c56)c2C#N)cc1,1.865078213577369,-1.2693659477608432,0.5631748062587584,-0.3996477982670391,-2.409242723223051,-0.7478460207852837,1.695042595625608,1.514231703114868,-0.5550267226066279,0.905261390961463,0.2676884946013241,-0.4620709274281531,0.3553574494206055,0.5162615575326084,-0.3312135326885057,0.0620559376786775,0.3039711948897953,0.2764346680881137,-0.342691310804177,-0.9080868917430812,33
Ra17_Rb012,CNP45,COc1cccc(-c2nc(-c3cccc(OC)c3)c(C#N)c(-c3ccc(C#Cc4ccccc4)cc3)c2C#N)c1,1.9790743353611293,-1.2546435843969317,0.6900131223669244,0.3338944517291651,0.4258083556465002,-1.3457491913446755,1.422305643187145,-0.0208026795367366,0.675607703397586,0.5838990100192222,-0.2267780001648544,1.828059567366271,-0.8445245799258336,-0.4202131773619339,0.4007369947835357,-0.5777541043591623,0.7933538113481414,-0.2340457879653127,-0.520552559190784,0.6537170370913798,0
Ra03_Rb001,CNP46,N#Cc1ccc(-c2nc(-c3ccc(C#N)cc3)c(C#N)c(-c3cccc4ccccc34)c2C#N)cc1,1.7841265558731163,-0.9141507548437549,1.4516127829082308,-1.2813760599080533,-0.9782846473742388,-0.8707069512474123,-1.0348805492139297,0.2438479309729331,-0.4452309697155401,-0.5589172711182009,-0.5976949193277654,-0.3929696790160081,0.2747484108155337,0.3886716164807883,-0.2662922861158404,0.7475844317568102,-0.0600817844101783,0.0782018400605672,-0.2208091755448613,0.4717729265531588,1
Ra09_Rb011,CNP47,COc1ccc(-c2nc(-c3ccc(OC)cc3)c(C#N)c(-c3ccc4c(c3)c3ccccc3n4Cc3ccccc3)c2C#N)cc1,2.62399775685787,0.9766693031623828,-0.5267274869261586,2.215790461125211,-0.5350658960269056,-0.6583373161430011,1.24933476035954,-0.6523769654854685,-0.4675709233879403,-0.360024740717607,-0.013475963145247,-0.3059704811046618,0.1522922654216982,0.7523223838007331,-0.6701808732697511,-0.6637315624734877,0.8795450961690648,0.3417645227919491,0.3329473200469952,0.0581537645639545,38
Ra05_Rb011,CNP48,Cc1ccc(-c2nc(-c3ccc(C)cc3)c(C#N)c(-c3ccc4c(c3)c3ccccc3n4Cc3ccccc3)c2C#N)cc1,2.472691879469345,1.010306538019751,-0.5864521700258573,1.4431108056256583,0.0539445743509065,1.5463004541301288,-0.5799654492494072,-0.8571966968302859,-0.4427660276987886,0.1129077079588691,0.1584411019359691,-0.1777980793670591,-0.0233751856536073,1.3565538507392243,-0.8182726090584139,-0.3514977245646124,0.7496834670543551,0.1722029396802366,0.2061541712773872,0.4667341985055818,53
Ra11_Rb024,CNP49,Cc1ccc(-c2ccc(-c3c(C#N)c(-c4ccc(Cl)cc4)nc(-c4ccc(Cl)cc4)c3C#N)cc2)cc1,1.53579227762965,-1.627106559717233,-0.5518711336596205,-0.6550791346173709,0.7543507109859517,2.0522347573744275,0.4761907599783118,0.2074641581049739,-0.223836505043463,0.130800742816743,0.0292406187384187,-0.2107917713549054,-0.222269428772517,0.3483323435539907,0.3764358725126382,-0.0145731419045826,1.0770456603395246,0.4932879643282006,1.2996754187668127,0.4071025221392616,1
Ra05_Rb024,CNP50,Cc1ccc(-c2ccc(-c3c(C#N)c(-c4ccc(C)cc4)nc(-c4ccc(C)cc4)c3C#N)cc2)cc1,1.5662251792833748,-1.5003706892577502,-0.4492258881363609,-0.6720544351785549,0.5521228308839786,1.9756390141600049,0.5304581073559779,0.226128063494769,-0.0878850985759887,0.0050910173347302,-0.0725451367590494,0.1549193533914897,-0.3815420685006859,0.2502699809432751,-0.2120491760408787,0.1794605460578972,-0.0146227773708375,-0.0624588980968456,0.2369675227012171,0.1602973278126812,0
Ra02_Rb002,CNP51,N#Cc1cccc(-c2nc(-c3cccc(C#N)c3)c(C#N)c(-c3ccc(-c4ccccc4)cc3)c2C#N)c1,1.6148968738259897,-1.1309493618464626,1.0983151063535423,-0.6531494936387326,1.2322847139187088,-0.5140959401669223,-0.1822070715446331,-0.4504546074584989,0.9292692170301126,0.5968813566529373,-0.1782224454720832,1.054936062189997,-0.5323186849497283,-0.2017271122852969,0.3696481835182824,-0.2732333503313665,0.1845932251259366,-0.1028442039671349,-0.0477720579737783,-0.1373989765939926,0
Ra12_Rb020,CNP52,Cc1cccc(-c2nc(-c3cccc(C)c3)c(C#N)c(-c3ccc(-n4c5ccccc5c5ccccc54)cc3)c2C#N)c1,2.359477571320248,1.084237447246536,0.0100005754985518,0.2848676102027585,0.800864711863732,0.7831041117680861,-0.8438813521201479,1.1392503459827317,-0.6164176972627341,0.6320323757781515,0.7566282084316102,0.9481500067124926,-0.1277778381446296,-0.97236473664838,1.5889993188205755,0.0011665910319646,-0.109133371772136,-0.3766927620339246,-0.4157462089791499,-0.3454434403808721,23
Ra06_Rb017,CNP53,Cn1c2ccccc2c2cc(-c3c(C#N)c(-c4ccc(F)cc4)nc(-c4ccc(F)cc4)c3C#N)ccc21,2.3794212414826217,0.9004539593858074,-0.3560423800479405,0.6008563300515385,0.0360237003365098,0.6296101970486931,-0.201260687722777,-0.6132292304432063,0.1325116395819762,-0.8348823114749224,0.0717175372569386,-1.164291356567564,-0.1299234172164133,-0.6205465548139638,-0.9175083610360092,-1.6095081113271654,-0.5615071490442005,0.7638371665015357,-0.6947177126916481,0.0007405259293693,51
Ra18_Rb027,CNP54,N#Cc1c(-c2ccc(I)cc2)nc(-c2ccc(I)cc2)c(C#N)c1-c1ccc(-c2ccc(F)cc2)cc1,1.5279866951808143,-1.562464131817709,-0.030690786230606,-1.106588800640432,0.9256936728015428,0.8441443045888741,0.7172533693941487,-0.486734895754883,0.4915911684920136,-0.8406576800378721,-0.0817409184728362,-1.2247983965785203,0.3340744923852348,-1.1283134188213884,-0.544139498598367,-0.7819140589479419,-0.6098289824859777,-0.3788603704028102,0.4826756069252934,-1.0837795232352292,0
Ra05_Rb027,CNP55,Cc1ccc(-c2nc(-c3ccc(C)cc3)c(C#N)c(-c3ccc(-c4ccc(F)cc4)cc3)c2C#N)cc1,1.652190231082522,-1.6549623484828135,-0.4609372014720896,-0.9280007760980798,0.6468910006680062,2.3490883751600715,0.6524424614022106,0.0072537151020893,0.0830748432213455,-0.3468591376749476,0.0815207418840085,-0.4800585677926814,-0.3668425002092906,-0.5870325043090205,-0.5724698852142883,-0.4587867607659776,-0.4993386129500334,-0.1427379756835782,-0.0937395700258157,-0.1096457336060311,0